{
  "molecule": "Ethanol",
  "formula": "C2H5OH",
  "type": "Raman",
  "peaks": [
    {
      "wavenumber_cm-1": 880,
      "intensity": 1.00,
      "label": "C-C-O symmetric stretch",
      "mapping": {
        "rhythm": 0.7,
        "tactile_band": "low"
      }
    },
    {
      "wavenumber_cm-1": 1050,
      "intensity": 0.70,
      "label": "C-O asymmetric stretch",
      "mapping": {
        "rhythm": 0.8,
        "tactile_band": "low"
      }
    },
    {
      "wavenumber_cm-1": 1460,
      "intensity": 0.40,
      "label": "CH2/CH3 bending",
      "mapping": {
        "rhythm": 0.9,
        "tactile_band": "mid"
      }
    },
    {
      "wavenumber_cm-1": 2940,
      "intensity": 0.30,
      "label": "C-H stretch (asymmetric)",
      "mapping": {
        "rhythm": 1.2,
        "tactile_band": "high"
      }
    },
    {
      "wavenumber_cm-1": 2880,
      "intensity": 0.30,
      "label": "C-H stretch (symmetric)",
      "mapping": {
        "rhythm": 1.1,
        "tactile_band": "high"
      }
    }
  ],
  "global_properties": {
    "molecular_weight": 46.07,
    "dipole_moment": 1.69,
    "volatility": 0.85
  }
}